5
Lattice="3.9722942659050537 -4.988446121833947e-16 9.683073650042079e-38 2.3043676293015934e-16 3.9722942659050537 3.0320810957729004e-39 -5.562808803719362e-20 4.7979131734332665e-35 3.972294265905053" Properties=species:S:1:pos:R:3:magmoms:R:1:forces:R:3 energy=-41.41611702243139 free_energy=-41.41611702341291 dipole="-9.357773656841116e-15 3.561359236879246e-15 1.399983062898501e-14" magmom=0.0 stress="5.438297932721581e-06 4.1477856149357687e-19 0.0 4.1477856149357687e-19 5.438297932733195e-06 0.0 0.0 0.0 5.43829793274149e-06" pbc="T T T"
Ba       0.00000000      -0.00000000      -0.00000000       0.00000000       0.00000000       0.00000000       0.00000000
Ti       1.98614713       1.98614713       1.98614713       0.00000000       0.00000000       0.00000000       0.00000000
O        1.98614713      -0.00000000       1.98614713       0.00000000      -0.00000000       0.00000000       0.00000000
O        0.00000000       1.98614713       1.98614713       0.00000000       0.00000000      -0.00000000      -0.00000000
O        1.98614713       1.98614713      -0.00000000       0.00000000      -0.00000000      -0.00000000       0.00000000
