<?xml version="1.0" encoding="UTF-8" ?>
<psml version="1.1" energy_unit="hartree" length_unit="bohr"
 uuid="8f9c6f20-1d60-11e8-682e-922efe7b8133"
 xmlns="http://esl.cecam.org/PSML/ns/1.1">
<provenance creator="ONCVPSP-3.3.0+psml-3.3.0-73 (scalar-relativistic)"
 date="2018-03-01">
<annotation action="semilocal-pseudopotential-generation"
 action-cont="projectors-generation" />
<input-file name="oncvpsp-input">
<![CDATA[# atsym z nc nv iexc psfile
Ba 56 9 3 -116133 upf
# n l f
1 0 2.0
2 0 2.0
2 1 6.0
3 0 2.0
3 1 6.0
3 2 10.0
4 0 2.0
4 1 6.0
4 2 10.0
5 0 2.0
5 1 6.0
6 0 2.0
# lmax
2
# l rc ep ncon nbas qcut
0 2.15 0.0 4 7 5.2
1 1.9 0.0 4 8 6.6
2 2.15 0.0 4 9 6.6
# lloc lpopt rc5 dvloc0
4 5 1.9 0.0
# l nproj debl
0 2 1.0
1 2 2.5
2 2 3.0
# icmod fcfact
3 5 1.25
# epsh1 epsh2 depsh
-12.0 12.0 0.02
# rlmax drl
6.0 0.01
 0
]]>
</input-file>
</provenance>
<pseudo-atom-spec atomic-label="Ba" atomic-number="56" z-pseudo="10"
 flavor="Hamann&apos;s oncvpsp" relativity="scalar" spin-dft="no"
 core-corrections="yes">
<annotation pseudo-energy="-25.6474542817" />
<exchange-correlation>
<annotation oncvpsp-xc-code="-116133" oncvpsp-xc-type="libxc-interface" />
<libxc-info number-of-functionals="2">
<functional name="Perdew, Burke &amp; Ernzerhof SOL (GGA)" type="exchange"
 id="116" />
<functional name="Perdew, Burke &amp; Ernzerhof SOL (GGA)" type="correlation"
 id="133" />
</libxc-info>
</exchange-correlation>
<valence-configuration total-valence-charge="10">
<shell n="5" l="s" occupation="2" />
<shell n="5" l="p" occupation="6" />
<shell n="6" l="s" occupation="2" />
</valence-configuration>
</pseudo-atom-spec>
<grid npts="457">
<annotation type="sampled from oncvpsp log grid"
 recipe="r(i:1..N) = r1*exp(a*(i-1)) + r=0; resampled"
 recipe-cont="r1: scale; a: step" scale="0.892857142857E-05"
 step="0.119285708653E-01" delta="0.500000000000E-02" rmax="44.0559055307" />
<grid-data>
  0.000000000000E+00  5.030765996809E-03  1.004856027829E-02  1.507444276529E-02
  2.031206510006E-02  2.547908439618E-02  3.083699266043E-02  3.600963173750E-02
  4.105861707579E-02  4.626040627112E-02  5.150318121329E-02  5.666020677615E-02
  6.233360651298E-02  6.776194178895E-02  7.278953042278E-02  7.819014035445E-02
  8.399144785162E-02  8.915334250897E-02  9.463247370808E-02  1.004483379769E-01
  1.066216300490E-01  1.118323285593E-01  1.172976787660E-01  1.230301257351E-01
  1.290427227344E-01  1.353491609572E-01  1.419638006982E-01  1.471360711987E-01
  1.524967867957E-01  1.580528132467E-01  1.638112664542E-01  1.697795215795E-01
  1.759652224887E-01  1.823762915423E-01  1.890209397420E-01  1.959076772469E-01
  2.030453242728E-01  2.104430223891E-01  2.155239587216E-01  2.207275691810E-01
  2.260568156113E-01  2.315147313674E-01  2.371044230416E-01  2.428290722315E-01
  2.486919373514E-01  2.546963554868E-01  2.608457442937E-01  2.671436039439E-01
  2.735935191176E-01  2.801991610431E-01  2.869642895874E-01  2.938927553952E-01
  3.009885020814E-01  3.082555684757E-01  3.156980909209E-01  3.233203056281E-01
  3.311265510872E-01  3.391212705367E-01  3.473090144925E-01  3.556944433384E-01
  3.642823299784E-01  3.730775625534E-01  3.820851472237E-01  3.913102110182E-01
  4.007580047531E-01  4.104339060198E-01  4.203434222468E-01  4.253875433137E-01
  4.304921938335E-01  4.356581001595E-01  4.408859973614E-01  4.461766293297E-01
  4.515307488817E-01  4.569491178683E-01  4.624325072827E-01  4.679816973701E-01
  4.735974777385E-01  4.792806474714E-01  4.850320152411E-01  4.908523994239E-01
  4.967426282170E-01  5.027035397556E-01  5.087359822327E-01  5.148408140195E-01
  5.210189037877E-01  5.272711306332E-01  5.335983842008E-01  5.400015648112E-01
  5.464815835889E-01  5.530393625920E-01  5.596758349431E-01  5.663919449624E-01
  5.731886483020E-01  5.800669120816E-01  5.870277150266E-01  5.940720476069E-01
  6.012009121782E-01  6.084153231243E-01  6.157163070018E-01  6.231049026858E-01
  6.305821615181E-01  6.381491474563E-01  6.458069372257E-01  6.535566204725E-01
  6.613992999181E-01  6.693360915171E-01  6.773681246153E-01  6.854965421107E-01
  6.937225006161E-01  7.020471706235E-01  7.104717366709E-01  7.189973975110E-01
  7.276253662811E-01  7.363568706765E-01  7.451931531246E-01  7.541354709621E-01
  7.631850966137E-01  7.723433177730E-01  7.816114375863E-01  7.909907748373E-01
  8.004826641354E-01  8.100884561050E-01  8.198095175783E-01  8.296472317892E-01
  8.396029985707E-01  8.496782345535E-01  8.598743733682E-01  8.701928658486E-01
  8.806351802388E-01  8.912028024016E-01  9.018972360304E-01  9.127200028628E-01
  9.236726428972E-01  9.347567146119E-01  9.459737951873E-01  9.573254807295E-01
  9.688133864983E-01  9.804391471363E-01  9.922044169019E-01  1.004110869905E+00
  1.016160200344E+00  1.028354122748E+00  1.040694372221E+00  1.053182704687E+00
  1.065820897144E+00  1.078610747909E+00  1.091554076884E+00  1.104652725807E+00
  1.117908558516E+00  1.131323461219E+00  1.144899342753E+00  1.158638134866E+00
  1.172541792485E+00  1.186612293995E+00  1.200851641522E+00  1.215261861221E+00
  1.229845003555E+00  1.244603143598E+00  1.259538381321E+00  1.274652841897E+00
  1.289948676000E+00  1.305428060112E+00  1.321093196833E+00  1.336946315195E+00
  1.352989670978E+00  1.369225547029E+00  1.385656253594E+00  1.402284128637E+00
  1.419111538180E+00  1.436140876639E+00  1.453374567158E+00  1.470815061964E+00
  1.488464842708E+00  1.506326420820E+00  1.524402337870E+00  1.542695165924E+00
  1.561207507916E+00  1.579941998011E+00  1.598901301987E+00  1.618088117611E+00
  1.637505175022E+00  1.657155237122E+00  1.677041099968E+00  1.697165593167E+00
  1.717531580285E+00  1.738141959249E+00  1.758999662760E+00  1.780107658713E+00
  1.801468950617E+00  1.823086578025E+00  1.844963616961E+00  1.867103180365E+00
  1.889508418529E+00  1.912182519551E+00  1.935128709786E+00  1.958350254303E+00
  1.981850457355E+00  2.005632662843E+00  2.029700254797E+00  2.054056657855E+00
  2.078705337749E+00  2.103649801802E+00  2.128893599424E+00  2.154440322617E+00
  2.180293606488E+00  2.206457129766E+00  2.232934615323E+00  2.259729830707E+00
  2.286846588676E+00  2.314288747740E+00  2.342060212713E+00  2.370164935265E+00
  2.398606914488E+00  2.427390197462E+00  2.456518879832E+00  2.485997106390E+00
  2.515829071666E+00  2.546019020526E+00  2.576571248773E+00  2.607490103758E+00
  2.638779985003E+00  2.670445344823E+00  2.702490688961E+00  2.734920577229E+00
  2.767739624155E+00  2.800952499645E+00  2.834563929641E+00  2.868578696797E+00
  2.903001641158E+00  2.937837660852E+00  2.973091712782E+00  3.008768813336E+00
  3.044874039096E+00  3.081412527565E+00  3.118389477896E+00  3.155810151630E+00
  3.193679873450E+00  3.232004031931E+00  3.270788080314E+00  3.310037537278E+00
  3.349757987726E+00  3.389955083578E+00  3.430634544581E+00  3.471802159116E+00
  3.513463785026E+00  3.555625350446E+00  3.598292854651E+00  3.641472368907E+00
  3.685170037334E+00  3.729392077782E+00  3.774144782715E+00  3.819434520108E+00
  3.865267734349E+00  3.911650947161E+00  3.958590758527E+00  4.006093847630E+00
  4.054166973801E+00  4.102816977487E+00  4.152050781217E+00  4.201875390591E+00
  4.252297895278E+00  4.303325470022E+00  4.354965375662E+00  4.407224960170E+00
  4.460111659692E+00  4.513632999608E+00  4.567796595604E+00  4.622610154751E+00
  4.678081476608E+00  4.734218454327E+00  4.791029075779E+00  4.848521424688E+00
  4.906703681785E+00  4.965584125966E+00  5.025171135478E+00  5.085473189103E+00
  5.146498867373E+00  5.208256853781E+00  5.270755936027E+00  5.334005007259E+00
  5.398013067346E+00  5.462789224154E+00  5.528342694844E+00  5.594682807182E+00
  5.661819000868E+00  5.729760828879E+00  5.798517958825E+00  5.868100174331E+00
  5.938517376423E+00  6.009779584940E+00  6.081896939959E+00  6.154879703239E+00
  6.228738259678E+00  6.303483118794E+00  6.379124916219E+00  6.455674415214E+00
  6.533142508197E+00  6.611540218295E+00  6.690878700915E+00  6.771169245326E+00
  6.852423276269E+00  6.934652355585E+00  7.017868183852E+00  7.102082602058E+00
  7.187307593283E+00  7.273555284402E+00  7.360837947815E+00  7.449168003189E+00
  7.538558019227E+00  7.629020715458E+00  7.720568964043E+00  7.813215791612E+00
  7.906974381111E+00  8.001858073684E+00  8.097880370569E+00  8.195054935015E+00
  8.293395594236E+00  8.392916341366E+00  8.493631337463E+00  8.595554913512E+00
  8.698701572474E+00  8.803085991344E+00  8.908723023240E+00  9.015627699519E+00
  9.123815231913E+00  9.233301014696E+00  9.344100626873E+00  9.456229834395E+00
  9.569704592408E+00  9.684541047517E+00  9.800755540087E+00  9.918364606568E+00
  1.003738498185E+01  1.015783360163E+01  1.027972760485E+01  1.040308433611E+01
  1.052792134814E+01  1.065425640432E+01  1.078210748117E+01  1.091149277094E+01
  1.104243068419E+01  1.117493985241E+01  1.130903913063E+01  1.144474760020E+01
  1.158208457140E+01  1.172106958626E+01  1.186172242130E+01  1.200406309035E+01
  1.214811184744E+01  1.229388918961E+01  1.244141585988E+01  1.259071285020E+01
  1.274180140440E+01  1.289470302125E+01  1.304943945751E+01  1.320603273100E+01
  1.336450512377E+01  1.352487918526E+01  1.368717773548E+01  1.385142386831E+01
  1.401764095473E+01  1.418585264618E+01  1.435608287794E+01  1.452835587247E+01
  1.470269614294E+01  1.487912849666E+01  1.505767803862E+01  1.523837017508E+01
  1.542123061718E+01  1.560628538459E+01  1.579356080920E+01  1.598308353891E+01
  1.617488054138E+01  1.636897910788E+01  1.656540685717E+01  1.676419173946E+01
  1.696536204033E+01  1.716894638481E+01  1.737497374143E+01  1.758347342633E+01
  1.779447510744E+01  1.800800880873E+01  1.822410491444E+01  1.844279417341E+01
  1.866410770349E+01  1.888807699593E+01  1.911473391989E+01  1.934411072692E+01
  1.957624005565E+01  1.981115493632E+01  2.004888879555E+01  2.028947546110E+01
  2.053294916663E+01  2.077934455663E+01  2.102869669131E+01  2.128104105161E+01
  2.153641354422E+01  2.179485050676E+01  2.205638871284E+01  2.232106537739E+01
  2.258891816192E+01  2.285998517986E+01  2.313430500202E+01  2.341191666205E+01
  2.369285966199E+01  2.397717397793E+01  2.426490006567E+01  2.455607886646E+01
  2.485075181285E+01  2.514896083461E+01  2.545074836462E+01  2.575615734500E+01
  2.606523123314E+01  2.637801400794E+01  2.669455017603E+01  2.701488477814E+01
  2.733906339548E+01  2.766713215623E+01  2.799913774210E+01  2.833512739501E+01
  2.867514892375E+01  2.901925071083E+01  2.936748171936E+01  2.971989150000E+01
  3.007653019800E+01  3.043744856037E+01  3.080269794310E+01  3.117233031841E+01
  3.154639828223E+01  3.192495506162E+01  3.230805452236E+01  3.269575117663E+01
  3.308810019075E+01  3.348515739304E+01  3.388697928175E+01  3.429362303313E+01
  3.470514650953E+01  3.512160826765E+01  3.554306756686E+01  3.596958437766E+01
  3.640121939019E+01  3.683803402287E+01  3.728009043115E+01  3.772745151632E+01
  3.818018093452E+01  3.863834310573E+01  3.910200322300E+01  3.957122726168E+01
  4.004608198882E+01  4.052663497268E+01  4.101295459236E+01  4.150511004746E+01
  4.200317136803E+01  4.250720942445E+01  4.301729593754E+01  4.353350348879E+01
  4.405590553066E+01
</grid-data>
</grid>
<valence-charge total-charge="10" is-unscreening-charge="yes"
 rescaled-to-z-pseudo="no">
<radfunc>
<data npts="457">
  6.590965400681E-03  6.599205724562E-03  6.623872702189E-03  6.665138846553E-03
  6.725946294538E-03  6.803976725604E-03  6.904145637764E-03  7.019840760920E-03
  7.151196576930E-03  7.306079184707E-03  7.482860233818E-03  7.677664084152E-03
  7.916799953895E-03  8.170898158206E-03  8.429187903702E-03  8.732241563994E-03
  9.088606798294E-03  9.433746710227E-03  9.830333719491E-03  1.028695937566E-02
  1.081385937199E-02  1.129412178297E-02  1.183451077899E-02  1.244356489792E-02
  1.313120231974E-02  1.390896755245E-02  1.479032496572E-02  1.552869358025E-02
  1.634173527027E-02  1.723801988034E-02  1.822721084196E-02  1.932021443006E-02
  2.052934992596E-02  2.186854356676E-02  2.335354952639E-02  2.500220157450E-02
  2.683469949557E-02  2.887393481922E-02  3.036095730876E-02  3.195985711439E-02
  3.367991299124E-02  3.553121834168E-02  3.752475350803E-02  3.967246418317E-02
  4.198734637659E-02  4.448353838742E-02  4.717642024600E-02  5.008272109116E-02
  5.322063494908E-02  5.660994537047E-02  6.027215936354E-02  6.423065102810E-02
  6.851081524891E-02  7.314023173990E-02  7.814883964216E-02  8.356912276207E-02
  8.943630538782E-02  9.578855843532E-02  1.026672154432E-01  1.101169976520E-01
  1.181862470579E-01  1.269271659168E-01  1.363960606791E-01  1.466535877490E-01
  1.577649977766E-01  1.698003743849E-01  1.828348623081E-01  1.897516921342E-01
  1.969488788499E-01  2.044373292410E-01  2.122283013540E-01  2.203334084167E-01
  2.287646220051E-01  2.375342743587E-01  2.466550597410E-01  2.561400347338E-01
  2.660026173460E-01  2.762565848093E-01  2.869160699240E-01  2.979955558118E-01
  3.095098689190E-01  3.214741701103E-01  3.339039436789E-01  3.468149840922E-01
  3.602233802830E-01  3.741454972854E-01  3.885979550079E-01  4.035976039248E-01
  4.191614974620E-01  4.353068608426E-01  4.520510561527E-01  4.694115433799E-01
  4.874058371750E-01  5.060514590785E-01  5.253658849567E-01  5.453664873872E-01
  5.660704727363E-01  5.874948126758E-01  6.096561698882E-01  6.325708177241E-01
  6.562545535814E-01  6.807226057951E-01  7.059895338453E-01  7.320691217110E-01
  7.589742642305E-01  7.867168463562E-01  8.153076152353E-01  8.447560450865E-01
  8.750701948965E-01  9.062565590143E-01  9.383199107844E-01  9.712631394305E-01
  1.005087080477E+00  1.039790340083E+00  1.075369113750E+00  1.111816999970E+00
  1.149124809483E+00  1.187280370935E+00  1.226268333831E+00  1.266069969827E+00
  1.306662973532E+00  1.348021264118E+00  1.390114789197E+00  1.432909332559E+00
  1.476366327526E+00  1.520442677816E+00  1.565090587955E+00  1.610257405452E+00
  1.655885477034E+00  1.701912021443E+00  1.748269021351E+00  1.794883137101E+00
  1.841675645053E+00  1.888562403402E+00  1.935453848363E+00  1.982255023656E+00
  2.028865646219E+00  2.075180211009E+00  2.121088137710E+00  2.166473962008E+00
  2.211217573948E+00  2.255194505675E+00  2.298276270579E+00  2.340330755567E+00
  2.381222667784E+00  2.420814036716E+00  2.458964772061E+00  2.495533277273E+00
  2.530377118016E+00  2.563353744168E+00  2.594321263253E+00  2.623139262455E+00
  2.649669675555E+00  2.673777690290E+00  2.695332690783E+00  2.714209228791E+00
  2.730288016651E+00  2.743456933888E+00  2.753612038621E+00  2.760658574031E+00
  2.764511959400E+00  2.765098754519E+00  2.762357585624E+00  2.756240020522E+00
  2.746711380185E+00  2.733751473863E+00  2.717355244703E+00  2.697533313037E+00
  2.674312404826E+00  2.647735653376E+00  2.617862763301E+00  2.584770026814E+00
  2.548550183846E+00  2.509312119204E+00  2.467180391902E+00  2.422294594123E+00
  2.374808539711E+00  2.324889284872E+00  2.272715986707E+00  2.218478608256E+00
  2.162376481937E+00  2.104616746460E+00  2.045412675433E+00  1.984981918886E+00
  1.923544681714E+00  1.861321865440E+00  1.798533201740E+00  1.735395407615E+00
  1.672120392948E+00  1.608913551369E+00  1.545972164721E+00  1.483483950065E+00
  1.421625775922E+00  1.360562571464E+00  1.300446477184E+00  1.241416362923E+00
  1.183597722963E+00  1.127102644207E+00  1.072029782405E+00  1.018464527423E+00
  9.664792579350E-01  9.161337051669E-01  8.674754136566E-01  8.205402904626E-01
  7.753533282746E-01  7.319297577807E-01  6.902764160633E-01  6.503922889888E-01
  6.122690821795E-01  5.758917799042E-01  5.412392088307E-01  5.082845968795E-01
  4.769961248100E-01  4.473374674078E-01  4.192683212731E-01  3.927449171555E-01
  3.677205142536E-01  3.441458747564E-01  3.219697169553E-01  3.011391455462E-01
  2.816000579821E-01  2.632975259729E-01  2.461761514439E-01  2.301803964792E-01
  2.152548869705E-01  2.013446898850E-01  1.883955642451E-01  1.763541860872E-01
  1.651683478331E-01  1.547871326667E-01  1.451610646652E-01  1.362422355844E-01
  1.279844093477E-01  1.203431054352E-01  1.132756625166E-01  1.067412838134E-01
  1.007010658048E-01  9.511801200371E-02  8.995703360168E-02  8.518493880108E-02
  8.077041259986E-02  7.668398866041E-02  7.289801467587E-02  6.938661236458E-02
  6.612563290811E-02  6.309260834599E-02  6.026669919794E-02  5.762863843734E-02
  5.516067190375E-02  5.284649530689E-02  5.067118810973E-02  4.862114474256E-02
  4.668400375195E-02  4.484857559875E-02  4.310476987206E-02  4.144352268021E-02
  3.985672492558E-02  3.833715208224E-02  3.687839598987E-02  3.547479906778E-02
  3.412139124942E-02  3.281382984550E-02  3.154834246652E-02  3.032167307248E-02
  2.913103116829E-02  2.797404412569E-02  2.684871258423E-02  2.575336886297E-02
  2.468663829963E-02  2.364740342286E-02  2.263477085518E-02  2.164804083859E-02
  2.068667927018E-02  1.975029213151E-02  1.883860219267E-02  1.795142786927E-02
  1.708866410799E-02  1.625026517453E-02  1.543622921559E-02  1.464658446545E-02
  1.388137696747E-02  1.314065968182E-02  1.242448285379E-02  1.173288552297E-02
  1.106588806199E-02  1.042348564568E-02  9.805642567233E-03  9.212287335869E-03
  8.643308511228E-03  8.098551249868E-03  7.577814558293E-03  7.080849261947E-03
  6.607356702315E-03  6.156988226062E-03  5.729345382612E-03  5.323980946946E-03
  4.940400691763E-03  4.578065886116E-03  4.236396462607E-03  3.914774773838E-03
  3.612549841148E-03  3.329041985956E-03  3.063547727060E-03  2.815344826044E-03
  2.583697367050E-03  2.367860765738E-03  2.167086614110E-03  1.980627281971E-03
  1.807740210996E-03  1.647691852746E-03  1.499761216772E-03  1.363243008671E-03
  1.237450350113E-03  1.121717083413E-03  1.015399671914E-03  9.178787144590E-04
  8.285600975693E-04  7.468758127670E-04  6.722844689902E-04  6.042715313889E-04
  5.423493181650E-04  4.860567866956E-04  4.349591391139E-04  3.886472759701E-04
  3.467371246716E-04  3.088688672356E-04  2.747060895595E-04  2.439348720257E-04
  2.162628388644E-04  1.914181813694E-04  1.691486678427E-04  1.492206510735E-04
  1.314180822619E-04  1.155415386019E-04  1.014072702420E-04  8.884627105870E-05
  7.770337659237E-05  6.783639159868E-05  5.911524894491E-05  5.142120100785E-05
  4.464604428620E-05  3.869137760310E-05  3.346789402198E-05  2.889470641028E-05
  2.489870644420E-05  2.141395673765E-05  1.838111568908E-05  1.574689456150E-05
  1.346354623797E-05  1.148838502315E-05  9.783336789826E-06  8.314518696692E-06
  7.051847631169E-06  5.968676460413E-06  5.041457105846E-06  4.249429394213E-06
  3.574334582641E-06  3.000152407978E-06  2.512860473174E-06  2.100214756170E-06
  1.751550010295E-06  1.457598819418E-06  1.210328075860E-06  1.002791663765E-06
  8.289981543735E-07  6.837923516859E-07  5.627495660172E-07  4.620815380739E-07
  3.785529860661E-07  3.094078020181E-07  2.523039797242E-07  2.052564147174E-07
  1.665867752748E-07  1.348797020407E-07  1.089446516108E-07  8.778275576686E-08
  7.055812249339E-08  5.657305703251E-08  4.524673074144E-08  3.609687218052E-08
  2.872409853572E-08  2.279854609070E-08  1.804849598882E-08  1.425072599821E-08
  1.122235048164E-08  8.813939384616E-09  6.903732916817E-09  5.392791864715E-09
  4.200944296256E-09  3.263407972902E-09  2.527984242003E-09  1.952733716648E-09
  1.504056830592E-09  1.155113546990E-09  8.845262587268E-10  6.753183939778E-10
  5.140485725412E-10  3.901064758621E-10  2.951420157287E-10  2.226040222534E-10
  1.673686198834E-10  1.254408099873E-10  9.371560997821E-11  6.978748317245E-11
  5.179879374461E-11  3.831969281616E-11  2.825323363000E-11  2.076066840787E-11
  1.520283372563E-11  1.109431690425E-11  8.067740355704E-12  5.846027437487E-12
  4.220942075664E-12  3.036542093190E-12  2.176467069343E-12  1.554207617452E-12
  1.105684203027E-12  7.836083582791E-13  5.532142821555E-13  3.890400412557E-13
  2.725095843079E-13  1.901233775623E-13  1.321097766631E-13  9.142379886954E-14
  6.300678748092E-14  4.324120716955E-14  2.955078618364E-14  2.010847378484E-14
  1.362403731795E-14  9.190237004669E-15  6.171901894374E-15  4.126289475533E-15
  2.746157351774E-15  1.819250801536E-15  1.199602197300E-15  7.872909259455E-16
  5.142354962160E-16  3.342665078478E-16  2.162233416029E-16  1.391764536842E-16
  8.913673251762E-17  5.680013450514E-17  3.600952292623E-17  2.271088395873E-17
  1.424860568122E-17  8.892113924451E-18  5.519558183571E-18  3.407550072102E-18
  2.092138576028E-18  1.277380254959E-18  7.755367915095E-19  4.681742958060E-19
  2.809997857474E-19  0.000000000000E+00  0.000000000000E+00  0.000000000000E+00
  0.000000000000E+00
</data>
</radfunc>
</valence-charge>
<pseudocore-charge matching-radius="1.25953838132"
 number-of-continuous-derivatives="4">
<annotation model-charge-form="Teter function with specified parameters" />
<radfunc>
<data npts="290">
  1.470827663586E+01  1.470780218066E+01  1.470638379087E+01  1.470401715007E+01
  1.470054387172E+01  1.469611105305E+01  1.469045977769E+01  1.468398622598E+01
  1.467670440372E+01  1.466820861927E+01  1.465862720537E+01  1.464820659041E+01
  1.463560393894E+01  1.462243153186E+01  1.460926216585E+01  1.459407990731E+01
  1.457657954103E+01  1.455997363735E+01  1.454128512589E+01  1.452025584519E+01
  1.449659644629E+01  1.447555872231E+01  1.445244751211E+01  1.442706208568E+01
  1.439918304392E+01  1.436857074389E+01  1.433496362641E+01  1.430762228997E+01
  1.427830676555E+01  1.424687883699E+01  1.421319127729E+01  1.417708736508E+01
  1.413840039235E+01  1.409695316630E+01  1.405255750951E+01  1.400501376280E+01
  1.395411029683E+01  1.389962303912E+01  1.386119072882E+01  1.382098709616E+01
  1.377893597899E+01  1.373495848951E+01  1.368897297399E+01  1.364089497893E+01
  1.359063722450E+01  1.353810958633E+01  1.348321908703E+01  1.342586989851E+01
  1.336596335671E+01  1.330339799009E+01  1.323806956373E+01  1.316987114072E+01
  1.309869316277E+01  1.302442355223E+01  1.294694783767E+01  1.286614930539E+01
  1.278190917947E+01  1.269410683306E+01  1.260262003363E+01  1.250732522540E+01
  1.240809785187E+01  1.230481272193E+01  1.219734442283E+01  1.208556778351E+01
  1.196935839196E+01  1.184859317025E+01  1.172315101068E+01  1.165863894296E+01
  1.159291347701E+01  1.152596035195E+01  1.145776557398E+01  1.138831544437E+01
  1.131759658872E+01  1.124559598741E+01  1.117230100724E+01  1.109769943439E+01
  1.102177950866E+01  1.094452995893E+01  1.086594004000E+01  1.078599957067E+01
  1.070469897321E+01  1.062202931406E+01  1.053798234594E+01  1.045255055122E+01
  1.036572718662E+01  1.027750632913E+01  1.018788292336E+01  1.009685282996E+01
  1.000441287538E+01  9.910560902756E+00  9.815295823977E+00  9.718617672785E+00
  9.620527658958E+00  9.521028223429E+00  9.420123094309E+00  9.317817343704E+00
  9.214117445254E+00  9.109031332270E+00  9.002568456375E+00  8.894739846498E+00
  8.785558168110E+00  8.675037782524E+00  8.563194806124E+00  8.450047169321E+00
  8.335614675059E+00  8.219919056671E+00  8.102984034848E+00  7.984835373508E+00
  7.865500934296E+00  7.745010729466E+00  7.623396972848E+00  7.500694128626E+00
  7.376938957581E+00  7.252170560503E+00  7.126430418410E+00  6.999762429208E+00
  6.872212940440E+00  6.743830777702E+00  6.614667268352E+00  6.484776260072E+00
  6.354214133868E+00  6.223039811058E+00  6.091314753803E+00  5.959102958719E+00
  5.826470943112E+00  5.693487723357E+00  5.560224784965E+00  5.426756043856E+00
  5.293157798379E+00  5.159508671620E+00  5.025889543553E+00  4.892383472594E+00
  4.759075606150E+00  4.626053079771E+00  4.493404904531E+00  4.361221842324E+00
  4.229596268765E+00  4.098622023454E+00  3.968394247407E+00  3.839009207495E+00
  3.710564107830E+00  3.583156888064E+00  3.456886008672E+00  3.331850223364E+00
  3.208148338853E+00  3.085878962307E+00  2.965140236920E+00  2.846029566129E+00
  2.728643327141E+00  2.613076574534E+00  2.499422734831E+00  2.387773293076E+00
  2.278217472573E+00  2.170841909080E+00  2.065730320898E+00  1.962963176432E+00
  1.862617360925E+00  1.764765844223E+00  1.669477351546E+00  1.576816039370E+00
  1.486841178648E+00  1.399606847695E+00  1.315161637177E+00  1.233548369703E+00
  1.154803836600E+00  1.078958554504E+00  1.006036544389E+00  9.360551357043E-01
  8.690247982201E-01  8.049490041469E-01  7.438241230011E-01  6.856393515630E-01
  6.303766811169E-01  5.780109039671E-01  5.285096609900E-01  4.818335317069E-01
  4.379361680523E-01  3.967644726594E-01  3.582588220963E-01  3.223533350608E-01
  2.889761850859E-01  2.580499568194E-01  2.294920444294E-01  2.032150901569E-01
  1.791274604926E-01  1.571337569019E-01  1.371353574794E-01  1.190309853736E-01
  1.027172993111E-01  8.808950106580E-02  7.504195427949E-02  6.346880865549E-02
  5.326462322694E-02  4.432498215972E-02  3.654709639465E-02  2.983038437681E-02
  2.407702516918E-02  1.919247741099E-02  1.508595786395E-02  1.167087369491E-02
  8.865203172259E-03  6.591820104011E-03  4.778758111843E-03  3.359411709783E-03
  2.272672126030E-03  1.462996856448E-03  8.804130492554E-04  4.804559702962E-04
  2.240449616973E-04  7.730045607596E-05  1.130671421988E-05  1.825985754609E-06
  2.897071894702E-05  7.684123751452E-05  1.331369311132E-04  1.887494471433E-04
  2.373466040160E-04  2.749557548801E-04  2.995551073410E-04  3.106810476390E-04
  3.090588339807E-04  2.962631286363E-04  2.744137561197E-04  2.459108376982E-04
  2.132121007551E-04  1.786537417880E-04  1.443147856819E-04  1.119234859064E-04
  8.280300569157E-05  5.785246230138E-05  3.755845385099E-05  2.203146187762E-05
  1.106106422833E-05  4.183720675173E-06  7.570129009725E-07  3.462095656411E-08
  1.236974530246E-06  3.613389379407E-06  6.492534176953E-06  9.319207766448E-06
  1.167657174396E-05  1.329410643489E-05  1.404257022725E-05  1.391808077535E-05
  1.301805182244E-05  1.151207751870E-05  9.610942588983E-06  7.536757919481E-06
  5.496804421747E-06  3.663059911519E-06  2.158646322590E-06  1.051640379131E-06
  3.559163498115E-07  3.800798257809E-08  2.845106014285E-08  2.357442517255E-07
  5.609682354725E-07  9.112308852667E-07  1.210434180367E-06  1.406338634955E-06
  1.473468770593E-06  1.411984524265E-06  1.243164418042E-06  1.002542087177E-06
  7.319616076625E-07  4.718466571709E-07  2.548192814420E-07  1.014884376505E-07
  1.881153478342E-08  0.000000000000E+00  0.000000000000E+00  0.000000000000E+00
  0.000000000000E+00  0.000000000000E+00  0.000000000000E+00  0.000000000000E+00
  0.000000000000E+00  0.000000000000E+00  0.000000000000E+00  0.000000000000E+00
  0.000000000000E+00  0.000000000000E+00  0.000000000000E+00  0.000000000000E+00
  0.000000000000E+00  0.000000000000E+00  0.000000000000E+00  0.000000000000E+00
  0.000000000000E+00  0.000000000000E+00
</data>
</radfunc>
</pseudocore-charge>
<semilocal-potentials set="scalar_relativistic">
<slps n="5" l="s" rc="2.15444032262" eref="-1.23858108058">
<radfunc>
<data npts="290">
  5.919138975852E+01  5.915221605460E+01  5.903536088140E+01  5.884123212928E+01
  5.855823516542E+01  5.820031125214E+01  5.774921549002E+01  5.723952812389E+01
  5.667499722170E+01  5.602783275484E+01  5.531239377225E+01  5.455111423957E+01
  5.365302942263E+01  5.273978591783E+01  5.185169991351E+01  5.085751494366E+01
  4.974910866175E+01  4.873275381121E+01  4.762805296389E+01  4.643187320677E+01
  4.514194870649E+01  4.404166621598E+01  4.288055541088E+01  4.165915573136E+01
  4.037864107448E+01  3.904086564012E+01  3.764839762127E+01  3.657011257628E+01
  3.546456859951E+01  3.433365855927E+01  3.317949673326E+01  3.200440758158E+01
  3.081091074375E+01  2.960170237456E+01  2.837963304627E+01  2.714768255627E+01
  2.590893208368E+01  2.466653423120E+01  2.383781857719E+01  2.300984980231E+01
  2.218357431512E+01  2.135993149977E+01  2.053984953046E+01  1.972424129610E+01
  1.891400047328E+01  1.810999778327E+01  1.731307746580E+01  1.652405399906E+01
  1.574370909131E+01  1.497278896593E+01  1.421200195682E+01  1.346201642710E+01
  1.272345901962E+01  1.199691324303E+01  1.128291839352E+01  1.058196880789E+01
  9.894513440196E+00  9.220955750721E+00  8.561653893081E+00  7.916921182775E+00
  7.287026828271E+00  6.672196904091E+00  6.072615544095E+00  5.488426332305E+00
  4.919733868240E+00  4.366605483620E+00  3.829073087628E+00  3.566156149581E+00
  3.307135118512E+00  3.052004903549E+00  2.800758580147E+00  2.553387456961E+00
  2.309881143292E+00  2.070227616964E+00  1.834413292509E+00  1.602423089536E+00
  1.374240501153E+00  1.149847662361E+00  9.292254182823E-01  7.123533921508E-01
  4.992100529521E-01  2.897727826421E-01  8.401794285390E-02 -1.180790589782E-01
 -3.165437041490E-01 -5.114022979294E-01 -7.026819055915E-01 -8.904102892664E-01
 -1.074615845683E+00 -1.255327544840E+00 -1.432574869641E+00 -1.606387756554E+00
 -1.776796537307E+00 -1.943831881673E+00 -2.107524741365E+00 -2.267906295078E+00
 -2.425007894702E+00 -2.578861012741E+00 -2.729497190954E+00 -2.876947990261E+00
 -3.021244941922E+00 -3.162419500040E+00 -3.300502995398E+00 -3.435526590663E+00
 -3.567521236994E+00 -3.696517632080E+00 -3.822546179633E+00 -3.945636950379E+00
 -4.065819644566E+00 -4.183123556023E+00 -4.297577537802E+00 -4.409209969418E+00
 -4.518048725712E+00 -4.624121147356E+00 -4.727454012998E+00 -4.828073513061E+00
 -4.926005225165E+00 -5.021274091179E+00 -5.113904395838E+00 -5.203919746894E+00
 -5.291343056737E+00 -5.376196525399E+00 -5.458501624842E+00 -5.538279084426E+00
 -5.615548877436E+00 -5.690330208503E+00 -5.762641501809E+00 -5.832500389891E+00
 -5.899923702913E+00 -5.964927458240E+00 -6.027526850203E+00 -6.087736239909E+00
 -6.145569145038E+00 -6.201038229538E+00 -6.254155293239E+00 -6.304931261384E+00
 -6.353376174187E+00 -6.399499176549E+00 -6.443308508129E+00 -6.484811494040E+00
 -6.524014536476E+00 -6.560923107657E+00 -6.595541744508E+00 -6.627874045542E+00
 -6.657922670475E+00 -6.685689343092E+00 -6.711174857954E+00 -6.734379091521E+00
 -6.755301018293E+00 -6.773938732563E+00 -6.790289476392E+00 -6.804349674361E+00
 -6.816114975706E+00 -6.825580304332E+00 -6.832739917246E+00 -6.837587471864E+00