<?xml version="1.0" encoding="UTF-8" ?>
<psml version="1.1" energy_unit="hartree" length_unit="bohr"
 uuid="10556d20-1d60-11e8-400e-130dfff705d3"
 xmlns="http://esl.cecam.org/PSML/ns/1.1">
<provenance creator="ONCVPSP-3.3.0+psml-3.3.0-73 (scalar-relativistic)"
 date="2018-03-01">
<annotation action="semilocal-pseudopotential-generation"
 action-cont="projectors-generation" />
<input-file name="oncvpsp-input">
<![CDATA[# atsym z nc nv iexc psfile
Sr 38 6 3 -116133 upf
# n l f
1 0 2.0
2 0 2.0
2 1 6.0
3 0 2.0
3 1 6.0
3 2 10.0
4 0 2.0
4 1 6.0
5 0 2.0
# lmax
2
# l rc ep ncon nbas qcut
0 1.65 0.0 4 8 6.7
1 1.3 0.0 4 8 8.3
2 1.5 0.0 4 8 7.8
# lloc lpopt rc5 dvloc0
4 5 1.3 0
# l nproj debl
0 2 1.0
1 2 3.0
2 2 3.5
# icmod fcfact rcfact
3 6.0 1.35
# epsh1 epsh2 depsh
-12.0 12.0 0.02
# rlmax drl
6.0 0.01
 0
]]>
</input-file>
</provenance>
<pseudo-atom-spec atomic-label="Sr" atomic-number="38" z-pseudo="10"
 flavor="Hamann&apos;s oncvpsp" relativity="scalar" spin-dft="no"
 core-corrections="yes">
<annotation pseudo-energy="-30.9065336668" />
<exchange-correlation>
<annotation oncvpsp-xc-code="-116133" oncvpsp-xc-type="libxc-interface" />
<libxc-info number-of-functionals="2">
<functional name="Perdew, Burke &amp; Ernzerhof SOL (GGA)" type="exchange"
 id="116" />
<functional name="Perdew, Burke &amp; Ernzerhof SOL (GGA)" type="correlation"
 id="133" />
</libxc-info>
</exchange-correlation>
<valence-configuration total-valence-charge="10">
<shell n="4" l="s" occupation="2" />
<shell n="4" l="p" occupation="6" />
<shell n="5" l="s" occupation="2" />
</valence-configuration>
</pseudo-atom-spec>
<grid npts="457">
<annotation type="sampled from oncvpsp log grid"
 recipe="r(i:1..N) = r1*exp(a*(i-1)) + r=0; resampled"
 recipe-cont="r1: scale; a: step" scale="0.131578947368E-04"
 step="0.119285708653E-01" delta="0.500000000000E-02" rmax="44.3233076602" />
<grid-data>
  0.000000000000E+00  5.001285356115E-03  1.010955111220E-02  1.516593874179E-02
  2.019303497754E-02  2.532977517910E-02  3.065628572608E-02  3.579861277629E-02
  4.081801070727E-02  4.598931705399E-02  5.120136896821E-02  5.632817400049E-02
  6.196832721796E-02  6.736485206945E-02  7.323133442633E-02  7.866472394973E-02
  8.450124311626E-02  8.969446845692E-02  9.520685584117E-02  1.010580201333E-01
  1.072687816757E-01  1.125111070896E-01  1.180096298362E-01  1.237768705182E-01
  1.298259616315E-01  1.361706774698E-01  1.428254654891E-01  1.480291296502E-01
  1.534223826959E-01  1.590121320562E-01  1.648055368242E-01  1.708100169258E-01
  1.770332626221E-01  1.834832443594E-01  1.901682229770E-01  1.970967602872E-01
  2.042777300411E-01  2.117203292939E-01  2.168321049244E-01  2.220672992657E-01
  2.274288921392E-01  2.329199353110E-01  2.385435542291E-01  2.443029498024E-01
  2.502014002225E-01  2.562422628294E-01  2.624289760232E-01  2.687650612203E-01
  2.752541248584E-01  2.818998604490E-01  2.887060506796E-01  2.956765695673E-01
  3.028153846629E-01  3.101265593102E-01  3.176142549582E-01  3.252827335299E-01
  3.331363598482E-01  3.411796041204E-01  3.494170444823E-01  3.578533696043E-01
  3.664933813600E-01  3.753419975595E-01  3.844042547486E-01  3.936853110753E-01
  4.031904492259E-01  4.129250794320E-01  4.228947425498E-01  4.279694794604E-01
  4.331051132139E-01  4.383023745725E-01  4.435620030674E-01  4.488847471042E-01
  4.542713640694E-01  4.597226204382E-01  4.652392918835E-01  4.708221633861E-01
  4.764720293467E-01  4.821896936989E-01  4.879759700233E-01  4.938316816636E-01
  4.997576618435E-01  5.057547537857E-01  5.118238108311E-01  5.179656965611E-01
  5.241812849198E-01  5.304714603388E-01  5.368371178629E-01  5.432791632772E-01
  5.497985132366E-01  5.563960953954E-01  5.630728485402E-01  5.698297227226E-01
  5.766676793953E-01  5.835876915481E-01  5.905907438466E-01  5.976778327728E-01
  6.048499667661E-01  6.121081663673E-01  6.194534643637E-01  6.268869059360E-01
  6.344095488073E-01  6.420224633929E-01  6.497267329537E-01  6.575234537491E-01
  6.654137351941E-01  6.733987000164E-01  6.814794844166E-01  6.896572382296E-01
  6.979331250884E-01  7.063083225894E-01  7.147840224605E-01  7.233614307300E-01
  7.320417678988E-01  7.408262691136E-01  7.497161843429E-01  7.587127785551E-01
  7.678173318977E-01  7.770311398805E-01  7.863555135591E-01  7.957917797218E-01
  8.053412810784E-01  8.150053764514E-01  8.247854409688E-01  8.346828662604E-01
  8.446990606555E-01  8.548354493834E-01  8.650934747760E-01  8.754745964733E-01
  8.859802916310E-01  8.966120551306E-01  9.073713997921E-01  9.182598565896E-01
  9.292789748687E-01  9.404303225671E-01  9.517154864379E-01  9.631360722752E-01
  9.746937051425E-01  9.863900296042E-01  9.982267099595E-01  1.010205430479E+00
  1.022327895645E+00  1.034595830392E+00  1.047010980357E+00  1.059575112121E+00
  1.072290013467E+00  1.085157493629E+00  1.098179383552E+00  1.111357536155E+00
  1.124693826589E+00  1.138190152508E+00  1.151848434338E+00  1.165670615550E+00
  1.179658662936E+00  1.193814566892E+00  1.208140341694E+00  1.222638025795E+00
  1.237309682104E+00  1.252157398289E+00  1.267183287069E+00  1.282389486514E+00
  1.297778160352E+00  1.313351498276E+00  1.329111716255E+00  1.345061056850E+00
  1.361201789533E+00  1.377536211007E+00  1.394066645539E+00  1.410795445286E+00
  1.427724990629E+00  1.444857690517E+00  1.462195982803E+00  1.479742334596E+00
  1.497499242612E+00  1.515469233523E+00  1.533654864325E+00  1.552058722697E+00
  1.570683427369E+00  1.589531628498E+00  1.608606008040E+00  1.627909280136E+00
  1.647444191498E+00  1.667213521796E+00  1.687220084058E+00  1.707466725066E+00
  1.727956325767E+00  1.748691801676E+00  1.769676103296E+00  1.790912216536E+00
  1.812403163134E+00  1.834152001092E+00  1.856161825105E+00  1.878435767006E+00
  1.900976996210E+00  1.923788720165E+00  1.946874184807E+00  1.970236675025E+00
  1.993879515125E+00  2.017806069306E+00  2.042019742138E+00  2.066523979044E+00
  2.091322266792E+00  2.116418133994E+00  2.141815151602E+00  2.167516933421E+00
  2.193527136622E+00  2.219849462261E+00  2.246487655808E+00  2.273445507678E+00
  2.300726853770E+00  2.328335576016E+00  2.356275602928E+00  2.384550910163E+00
  2.413165521085E+00  2.442123507338E+00  2.471428989426E+00  2.501086137299E+00
  2.531099170947E+00  2.561472360998E+00  2.592210029330E+00  2.623316549682E+00
  2.654796348278E+00  2.686653904457E+00  2.718893751311E+00  2.751520476327E+00
  2.784538722043E+00  2.817953186707E+00  2.851768624948E+00  2.885989848447E+00
  2.920621726628E+00  2.955669187348E+00  2.991137217596E+00  3.027030864207E+00
  3.063355234578E+00  3.100115497393E+00  3.137316883361E+00  3.174964685962E+00
  3.213064262193E+00  3.251621033339E+00  3.290640485740E+00  3.330128171568E+00
  3.370089709627E+00  3.410530786143E+00  3.451457155576E+00  3.492874641443E+00
  3.534789137141E+00  3.577206606786E+00  3.620133086068E+00  3.663574683101E+00
  3.707537579298E+00  3.752028030249E+00  3.797052366612E+00  3.842616995012E+00
  3.888728398952E+00  3.935393139739E+00  3.982617857416E+00  4.030409271705E+00
  4.078774182966E+00  4.127719473161E+00  4.177252106839E+00  4.227379132121E+00
  4.278107681707E+00  4.329444973887E+00  4.381398313574E+00  4.433975093337E+00
  4.487182794457E+00  4.541028987990E+00  4.595521335846E+00  4.650667591876E+00
  4.706475602979E+00  4.762953310215E+00  4.820108749937E+00  4.877950054936E+00
  4.936485455596E+00  4.995723281063E+00  5.055671960436E+00  5.116340023961E+00
  5.177736104248E+00  5.239868937499E+00  5.302747364749E+00  5.366380333126E+00
  5.430776897124E+00  5.495946219889E+00  5.561897574528E+00  5.628640345422E+00
  5.696184029567E+00  5.764538237922E+00  5.833712696777E+00  5.903717249139E+00
  5.974561856128E+00  6.046256598402E+00  6.118811677583E+00  6.192237417714E+00
  6.266544266726E+00  6.341742797927E+00  6.417843711502E+00  6.494857836040E+00
  6.572796130072E+00  6.651669683633E+00  6.731489719837E+00  6.812267596475E+00
  6.894014807633E+00  6.976742985324E+00  7.060463901148E+00  7.145189467962E+00
  7.230931741577E+00  7.317702922476E+00  7.405515357546E+00  7.494381541837E+00
  7.584314120339E+00  7.675325889783E+00  7.767429800460E+00  7.860638958066E+00
  7.954966625562E+00  8.050426225069E+00  8.147031339770E+00  8.244795715847E+00
  8.343733264437E+00  8.443858063611E+00  8.545184360374E+00  8.647726572698E+00
  8.751499291571E+00  8.856517283070E+00  8.962795490467E+00  9.070349036352E+00
  9.179193224788E+00  9.289343543486E+00  9.400815666008E+00  9.513625454000E+00
  9.627788959448E+00  9.743322426961E+00  9.860242296085E+00  9.978565203638E+00
  1.009830798608E+01  1.021948768191E+01  1.034212153410E+01  1.046622699251E+01
  1.059182171642E+01  1.071892357701E+01  1.084755065994E+01  1.097772126786E+01
  1.110945392307E+01  1.124276737015E+01  1.137768057859E+01  1.151421274553E+01
  1.165238329848E+01  1.179221189806E+01  1.193371844084E+01  1.207692306213E+01
  1.222184613887E+01  1.236850829254E+01  1.251693039205E+01  1.266713355675E+01
  1.281913915944E+01  1.297296882935E+01  1.312864445530E+01  1.328618818877E+01
  1.344562244703E+01  1.360696991639E+01  1.377025355539E+01  1.393549659806E+01
  1.410272255723E+01  1.427195522792E+01  1.444321869065E+01  1.461653731494E+01
  1.479193576272E+01  1.496943899187E+01  1.514907225978E+01  1.533086112689E+01
  1.551483146042E+01  1.570100943794E+01  1.588942155120E+01  1.608009460981E+01
  1.627305574513E+01  1.646833241407E+01  1.666595240304E+01  1.686594383188E+01
  1.706833515786E+01  1.727315517975E+01  1.748043304191E+01  1.769019823841E+01
  1.790248061727E+01  1.811731038468E+01  1.833471810930E+01  1.855473472661E+01
  1.877739154333E+01  1.900272024185E+01  1.923075288475E+01  1.946152191937E+01
  1.969506018240E+01  1.993140090459E+01  2.017057771544E+01  2.041262464803E+01
  2.065757614381E+01  2.090546705753E+01  2.115633266222E+01  2.141020865417E+01
  2.166713115802E+01  2.192713673191E+01  2.219026237270E+01  2.245654552117E+01
  2.272602406742E+01  2.299873635623E+01  2.327472119251E+01  2.355401784682E+01
  2.383666606098E+01  2.412270605371E+01  2.441217852636E+01  2.470512466867E+01
  2.500158616470E+01  2.530160519867E+01  2.560522446106E+01  2.591248715459E+01
  2.622343700044E+01  2.653811824445E+01  2.685657566338E+01  2.717885457134E+01
  2.750500082620E+01  2.783506083611E+01  2.816908156615E+01  2.850711054494E+01
  2.884919587148E+01  2.919538622194E+01  2.954573085660E+01  2.990027962688E+01
  3.025908298240E+01  3.062219197819E+01  3.098965828193E+01  3.136153418131E+01
  3.173787259149E+01  3.211872706259E+01  3.250415178734E+01  3.289420160879E+01
  3.328893202809E+01  3.368839921243E+01  3.409266000298E+01  3.450177192301E+01
  3.491579318609E+01  3.533478270432E+01  3.575880009677E+01  3.618790569794E+01
  3.662216056631E+01  3.706162649311E+01  3.750636601102E+01  3.795644240316E+01
  3.841191971199E+01  3.887286274854E+01  3.933933710152E+01  3.981140914674E+01
  4.028914605650E+01  4.077261580918E+01  4.126188719889E+01  4.175702984527E+01
  4.225811420342E+01  4.276521157386E+01  4.327839411275E+01  4.379773484210E+01
  4.432330766020E+01
</grid-data>
</grid>
<valence-charge total-charge="10" is-unscreening-charge="yes"
 rescaled-to-z-pseudo="no">
<radfunc>
<data npts="457">
  5.529764408143E-02  5.538899396968E-02  5.567106049088E-02  5.613860239112E-02
  5.678997263791E-02  5.764880589835E-02  5.874725095741E-02  6.001040076288E-02
  6.143748651723E-02  6.311080688792E-02  6.500870104821E-02  6.708575297146E-02
  6.961571627111E-02  7.228108578848E-02  7.545564653669E-02  7.865887752069E-02
  8.238813749818E-02  8.596332931913E-02  9.002939810248E-02  9.465849053079E-02
  9.993446369312E-02  1.046861200185E-01  1.099714288350E-01  1.158555099048E-01
  1.224123014341E-01  1.297258741266E-01  1.378919504774E-01  1.446410519787E-01
  1.519823880508E-01  1.599730090051E-01  1.686759866195E-01  1.781610825863E-01
  1.885054882931E-01  1.997946417797E-01  2.121231276166E-01  2.255956651463E-01
  2.403281899393E-01  2.564490323570E-01  2.680370696845E-01  2.803506718801E-01
  2.934387341939E-01  3.073535160392E-01  3.221508494223E-01  3.378903545008E-01
  3.546356613316E-01  3.724546365810E-01  3.914196136295E-01  4.116076241069E-01
  4.331006284378E-01  4.559857424466E-01  4.803554564691E-01  5.063078427206E-01
  5.339467458881E-01  5.633819510205E-01  5.947293217871E-01  6.281109010493E-01
  6.636549644343E-01  7.014960162062E-01  7.417747151904E-01  7.846377168262E-01
  8.302374155863E-01  8.787315700277E-01  9.302827906279E-01  9.850578683366E-01
  1.043226919461E+00  1.104962320151E+00  1.170437401412E+00  1.204631367588E+00
  1.239824873342E+00  1.276039102108E+00  1.313294945270E+00  1.351612924307E+00
  1.391013106797E+00  1.431515015984E+00  1.473137533628E+00  1.515898795856E+00
  1.559816081748E+00  1.604905694397E+00  1.651182834197E+00  1.698661464133E+00
  1.747354166879E+00  1.797271993524E+00  1.848424303802E+00  1.900818597711E+00
  1.954460338509E+00  2.009352767063E+00  2.065496707656E+00  2.122890365395E+00
  2.181529115448E+00  2.241405284454E+00  2.302507924533E+00  2.364822580450E+00
  2.428331050622E+00  2.493011142770E+00  2.558836425210E+00  2.625775974906E+00
  2.693794123601E+00  2.762850203527E+00  2.832898294384E+00  2.903886973491E+00
  2.975759071214E+00  3.048451434004E+00  3.121894697584E+00  3.196013073051E+00
  3.270724148862E+00  3.345938711876E+00  3.421560590830E+00  3.497486525763E+00
  3.573606067087E+00  3.649801508068E+00  3.725947854605E+00  3.801912836182E+00
  3.877556961871E+00  3.952733625159E+00  4.027289261259E+00  4.101063560299E+00
  4.173889739527E+00  4.245594877279E+00  4.316000310998E+00  4.384922101044E+00
  4.452171561437E+00  4.517555857952E+00  4.580878673224E+00  4.641940937706E+00
  4.700541624418E+00  4.756478604569E+00  4.809549560169E+00  4.859552948880E+00
  4.906289015481E+00  4.949560843510E+00  4.989175439941E+00  5.024944845149E+00
  5.056687259977E+00  5.084228181393E+00  5.107401538138E+00  5.126050817852E+00
  5.140030177414E+00  5.149205528731E+00  5.153455592847E+00  5.152672916033E+00
  5.146764842464E+00  5.135654438998E+00  5.119281368630E+00  5.097602710010E+00
  5.070593721247E+00  5.038248546702E+00  5.000580865720E+00  4.957624482091E+00
  4.909433852451E+00  4.856084550746E+00  4.797673664348E+00  4.734320115381E+00
  4.666164898395E+00  4.593371222787E+00  4.516124545509E+00  4.434632476778E+00
  4.349124538976E+00  4.259851756966E+00  4.167086056951E+00  4.071119451072E+00
  3.972262986427E+00  3.870845440345E+00  3.767210601719E+00  3.661709524649E+00
  3.554690044576E+00  3.446493559388E+00  3.337455041278E+00  3.227900684582E+00
  3.118146533275E+00  3.008497049674E+00  2.899243798315E+00  2.790664243365E+00
  2.683020671561E+00  2.576559252095E+00  2.471509243699E+00  2.368082357840E+00
  2.266472285245E+00  2.166854390997E+00  2.069385581198E+00  1.974204341758E+00
  1.881430947234E+00  1.791167834926E+00  1.703500317562E+00  1.618498158818E+00
  1.536217564495E+00  1.456701943368E+00  1.379982315022E+00  1.306077992137E+00
  1.234997223277E+00  1.166737851291E+00  1.101287982959E+00  1.038626665254E+00
  9.787245639057E-01  9.215446402692E-01  8.670428227459E-01  8.151686693464E-01
  7.658660182767E-01  7.190736236119E-01  6.747257736996E-01  6.327528898678E-01
  5.930821035245E-01  5.556378099159E-01  5.203421970737E-01  4.871157487218E-01
  4.558777201370E-01  4.265465861718E-01  3.990404608500E-01  3.732774881284E-01
  3.491762036028E-01  3.266558670954E-01  3.056367662253E-01  2.860404912071E-01
  2.677901812646E-01  2.508107431796E-01  2.350290426182E-01  2.203740689976E-01
  2.067770747665E-01  1.941716900853E-01  1.824940139979E-01  1.716826833019E-01
  1.616789204423E-01  1.524265618798E-01  1.438720685244E-01  1.359645199654E-01
  1.286555943649E-01  1.218995359943E-01  1.156531124565E-01  1.098755636207E-01
  1.045285441777E-01  9.957606149052E-02  9.498441006570E-02  9.072210355302E-02
  8.675980473826E-02  8.307025360561E-02  7.962819327156E-02  7.641029347490E-02
  7.339507135072E-02  7.056280939201E-02  6.789547075324E-02  6.537661231512E-02
  6.299129615348E-02  6.072600020398E-02  5.856852897780E-02  5.650792516654E-02
  5.453438289864E-02  5.263916329547E-02  5.081451284494E-02  4.905358498132E-02
  4.735036514082E-02  4.569959946170E-02  4.409672721473E-02  4.253781698588E-02
  4.101950658435E-02  3.953894661403E-02  3.809374762170E-02  3.668193071829E-02
  3.530188155865E-02  3.395230755813E-02  3.263219822062E-02  3.134078845030E-02
  3.007752471879E-02  2.884203395916E-02  2.763409505878E-02  2.645361282346E-02
  2.530059428591E-02  2.417512723213E-02  2.307736081995E-02  2.200748816411E-02
  2.096573076305E-02  1.995232464292E-02  1.896750809555E-02  1.801151088832E-02
  1.708454482659E-02  1.618679555261E-02  1.531841547018E-02  1.447951769094E-02
  1.367017090730E-02  1.289039510787E-02  1.214015806400E-02  1.141937253031E-02
  1.072789411696E-02  1.006551980569E-02  9.431987094504E-03  8.826973757622E-03
  8.250098271440E-03  7.700920799683E-03  7.178944855113E-03  6.683619567329E-03
  6.214342548621E-03  5.770463323383E-03  5.351287271079E-03  4.956080017853E-03
  4.584072199006E-03  4.234464504685E-03  3.906432914983E-03  3.599134028527E-03
  3.311710390400E-03  3.043295730527E-03  2.793020031786E-03  2.560014357365E-03
  2.343415378548E-03  2.142369556346E-03  1.956036942722E-03  1.783594578908E-03
  1.624239479258E-03  1.477191198800E-03  1.341693991085E-03  1.217018570025E-03
  1.102463495034E-03  9.973562032171E-04  9.010537154662E-04  8.129430453957E-04
  7.324413411578E-04  6.589957904530E-04  5.920833186488E-04  5.312101089585E-04
  4.759109722284E-04  4.257485921465E-04  3.803126697136E-04  3.392189886924E-04
  3.021084215432E-04  2.686458931393E-04  2.385193173675E-04  2.114385196297E-04
  1.871341562770E-04  1.653566401897E-04  1.458750800502E-04  1.284762393857E-04
  1.129635201650E-04  9.915597462651E-05  8.688734808854E-05  7.600515472406E-05
  6.636978766599E-05  5.785366431918E-05  5.034040737503E-05  4.372406173428E-05
  3.790834732318E-05  3.280594762176E-05  2.833783359498E-05  2.443262261650E-05
  2.102597188967E-05  1.806000579571E-05  1.548277652797E-05  1.324775730272E-05
  1.131336736741E-05  9.642527959049E-06  8.202248296802E-06  6.963240627065E-06
  5.899563276388E-06  4.988290610413E-06  4.209208746165E-06  3.544535822398E-06
  2.978665599028E-06  2.497933132829E-06  2.090401262740E-06  1.745666634470E-06
  1.454684000320E-06  1.209607545697E-06  1.003648018078E-06  8.309444662061E-07
  6.864494362256E-07  5.658265161450E-07  4.653591694885E-07  3.818698521486E-07
  3.126484623236E-07  2.553892310362E-07  2.081352192176E-07  1.692296459199E-07
  1.372733301879E-07  1.110875858832E-07  8.968196380052E-08  7.222628834589E-08
  5.802648652282E-08  4.650375476391E-08  3.717665407846E-08  2.964576596002E-08
  2.358058046876E-08  1.870832387666E-08  1.480446628764E-08  1.168467980179E-08
  9.198045192506E-09  7.221329839122E-09  5.654181951519E-09  4.415106093846E-09
  3.438102825318E-09  2.669871091409E-09  2.067485983314E-09  1.596476798034E-09
  1.229241131212E-09  9.437401686246E-10  7.224285501804E-10  5.513792941806E-10
  4.195704114437E-10  3.183051215330E-10  2.407421097146E-10  1.815161272447E-10
  1.364325237828E-10  1.022220852096E-10  7.634490078807E-11  5.683396073284E-11
  4.217084208275E-11  3.118722410633E-11  2.298712519707E-11  1.688570693582E-11
  1.236127851990E-11  9.017782642607E-12  6.555574934699E-12  4.748742707534E-12
  3.427561505345E-12  2.464973881349E-12  1.766205654609E-12  1.260820578099E-12
  8.966631195970E-13  6.352578003577E-13  4.483279446788E-13  3.151714599686E-13
  2.206902444909E-13  1.539161578620E-13  1.069127503244E-13  7.396020738637E-14
  5.095290177505E-14  3.495590031224E-14  2.387982520984E-14  1.624347396405E-14
  1.100123838756E-14  7.418167006427E-15  4.979906795729E-15  3.328068999508E-15
  2.214045613103E-15  1.466156356631E-15  9.663835935103E-16  6.339720420143E-16
  4.139209648711E-16  2.689469745737E-16  1.738972372622E-16  1.118845274266E-16
  7.162637166337E-17  4.562211014712E-17  2.891018634989E-17  1.822522114513E-17
  1.142915385070E-17  7.129307419437E-18  4.423284755370E-18  2.729472442806E-18
  1.675021603555E-18  1.022212702596E-18  6.203149143291E-19  3.742862131795E-19
  2.245361625416E-19  1.339150668038E-19  7.939674359907E-20  4.679236594741E-20
  2.741039091803E-20  0.000000000000E+00  0.000000000000E+00  0.000000000000E+00
  0.000000000000E+00
</data>
</radfunc>
</valence-charge>
<pseudocore-charge matching-radius="0.929278974869"
 number-of-continuous-derivatives="4">
<annotation model-charge-form="Teter function with specified parameters" />
<radfunc>
<data npts="290">
  3.123485824614E+01  3.123328988013E+01  3.122845033637E+01  3.122043911577E+01
  3.120929999627E+01  3.119465185059E+01  3.117598068283E+01  3.115459740858E+01
  3.113055014771E+01  3.110250179713E+01  3.107087946329E+01  3.103649967659E+01
  3.099493793010E+01  3.095151715308E+01  3.090027789525E+01  3.084908675083E+01
  3.079011624997E+01  3.073419623603E+01  3.067130555334E+01  3.060059151271E+01
  3.052110148522E+01  3.045048034731E+01  3.037296465701E+01  3.028790075099E+01
  3.019457707211E+01  3.009221991013E+01  2.997998902246E+01  2.988879085913E+01
  2.979111563700E+01  2.968652636451E+01  2.957456010647E+01  2.945472700304E+01
  2.932650934883E+01  2.918936075405E+01  2.904270541365E+01  2.888593751421E+01
  2.871842081317E+01  2.853948843006E+01  2.841351494991E+01  2.828194432217E+01
  2.814455650673E+01  2.800112569254E+01  2.785142045932E+01  2.769520398343E+01
  2.753223429285E+01  2.736226457604E+01  2.718504355016E+01  2.700031589415E+01
  2.680782275283E+01  2.660730231817E+01  2.639849049449E+01  2.618112165432E+01
  2.595492949226E+01  2.571964798418E+01  2.547501245928E+01  2.522076079280E+01
  2.495663472711E+01  2.468238132885E+01  2.439775458974E+01  2.410251717840E+01
  2.379644234987E+01  2.347931601937E+01  2.315093900558E+01  2.281112944801E+01
  2.245972540163E+01  2.209658761030E+01  2.172160245881E+01  2.152963939569E+01
  2.133468510086E+01  2.113673400490E+01  2.093578275775E+01  2.073183034054E+01
  2.052487817958E+01  2.031493026257E+01  2.010199325674E+01  1.988607662870E+01
  1.966719276606E+01  1.944535710024E+01  1.922058823066E+01  1.899290804963E+01
  1.876234186798E+01  1.852891854101E+01  1.829267059429E+01  1.805363434929E+01
  1.781185004800E+01  1.756736197654E+01  1.732021858703E+01  1.707047261735E+01
  1.681818120828E+01  1.656340601739E+01  1.630621332922E+01  1.604667416104E+01
  1.578486436355E+01  1.552086471591E+01  1.525476101426E+01  1.498664415315E+01
  1.471661019887E+01  1.444476045410E+01  1.417120151287E+01  1.389604530503E+01
  1.361940912931E+01  1.334141567406E+01  1.306219302464E+01  1.278187465669E+01
  1.250059941404E+01  1.221851147050E+01  1.193576027433E+01  1.165250047465E+01
  1.136889182845E+01  1.108509908761E+01  1.080129186457E+01  1.051764447613E+01
  1.023433576406E+01  9.951548892039E+00  9.669471117831E+00  9.388293540179E+00
  9.108210819597E+00  8.829420872580E+00  8.552124538727E+00  8.276525220412E+00
  8.002828494773E+00  7.731241697928E+00  7.461973481456E+00  7.195233341389E+00
  6.931231120106E+00  6.670176481734E+00  6.412278361872E+00  6.157744392669E+00
  5.906780304537E+00  5.659589306006E+00  5.416371443530E+00  5.177322943273E+00
  4.942635537234E+00  4.712495776318E+00  4.487084333273E+00  4.266575298701E+00
  4.051135473658E+00  3.840923662613E+00  3.636089970870E+00  3.436775110788E+00
  3.243109721419E+00  3.055213706413E+00  2.873195595258E+00  2.697151933118E+00
  2.527166704671E+00  2.363310797491E+00  2.205641510564E+00  2.054202113563E+00
  1.909021462482E+00  1.770113677120E+00  1.637477885761E+00  1.511098042160E+00
  1.390942819652E+00  1.276965586806E+00  1.169104468610E+00  1.067282496601E+00
  9.714078507472E-01  8.813741951856E-01  7.970611090984E-01  7.183346131802E-01
  6.450477911818E-01  5.770415050188E-01  5.141452008678E-01  4.561778025603E-01
  4.029486874404E-01  3.542587386876E-01  3.099014669359E-01  2.696641928734E-01
  2.333292813849E-01  2.006754167474E-01  1.714789074075E-01  1.455150079976E-01
  1.225592455051E-01  1.023887359155E-01  8.478347723542E-02  6.952760458377E-02
  5.641059304169E-02  4.522839418468E-02  3.578449270740E-02  2.789087029302E-02
  2.136886488410E-02  1.604991477768E-02  1.177617848536E-02  8.401023055119E-03
  5.789375523275E-03  3.817934322519E-03  2.375239778064E-03  1.361605235001E-03
  6.889128245053E-04  2.802803383976E-04  6.960807958379E-05  1.016825886838E-06
  2.819012134652E-05  1.136359275037E-04  2.278841658527E-04  3.486378053511E-04
  4.598958473868E-04  5.510667971652E-04  6.160909601463E-04  6.525891549233E-04
  6.610541964336E-04  6.440998000866E-04  6.057794311499E-04  5.509851355459E-04
  4.849336161674E-04  4.127438560574E-04  3.391075416282E-04  2.680505191169E-04
  2.027806429999E-04  1.456147618353E-04  9.797534338656E-05  6.044546217360E-05
  3.286963522244E-05  1.448734816307E-05  4.086088169850E-06  1.612855809869E-07
  1.071722945223E-06  5.180627409969E-06  1.097471925610E-05  1.715582102866E-05
  2.270209547128E-05  2.689842453448E-05  2.933771487136E-05  2.989687723070E-05
  2.869275908522E-05  2.602432345022E-05  2.230781217196E-05  1.801150224754E-05
  1.359599716520E-05  9.464872923094E-06  5.929038408303E-06  3.186517772151E-06
  1.317678751955E-06  2.943761710330E-07  1.994525206162E-10  2.581223730472E-07
  8.614258122798E-07  1.603822893354E-06  2.305230153624E-06  2.830517099849E-06
  3.099706790378E-06  3.089341542360E-06  2.825910789179E-06  2.373213643244E-06
  1.816178274509E-06  1.243911622054E-06  7.345907182002E-07  3.442747670123E-07
  1.009120414950E-07  3.873564199501E-09  0.000000000000E+00  0.000000000000E+00
  0.000000000000E+00  0.000000000000E+00  0.000000000000E+00  0.000000000000E+00
  0.000000000000E+00  0.000000000000E+00  0.000000000000E+00  0.000000000000E+00
  0.000000000000E+00  0.000000000000E+00  0.000000000000E+00  0.000000000000E+00
  0.000000000000E+00  0.000000000000E+00  0.000000000000E+00  0.000000000000E+00
  0.000000000000E+00  0.000000000000E+00  0.000000000000E+00  0.000000000000E+00
  0.000000000000E+00  0.000000000000E+00  0.000000000000E+00  0.000000000000E+00
  0.000000000000E+00  0.000000000000E+00  0.000000000000E+00  0.000000000000E+00
  0.000000000000E+00  0.000000000000E+00  0.000000000000E+00  0.000000000000E+00
  0.000000000000E+00  0.000000000000E+00  0.000000000000E+00  0.000000000000E+00
  0.000000000000E+00  0.000000000000E+00
</data>
</radfunc>
</pseudocore-charge>
<semilocal-potentials set="scalar_relativistic">
<slps n="4" l="s" rc="1.66721352180" eref="-1.50210909243">
<radfunc>
<data npts="290">
  3.655508738123E+01  3.653564808931E+01  3.647575229978E+01  3.637689591922E+01
  3.624004610136E+01  3.606114738853E+01  3.583484543037E+01  3.557802411260E+01
  3.529216446674E+01  3.496263224954E+01  3.459604002102E+01  3.420328612356E+01
  3.373636989480E+01  3.325754753422E+01  3.270396394363E+01  3.216290254857E+01
  3.155398454868E+01  3.099028474933E+01  3.037169328304E+01  2.969484993276E+01
  2.895663811492E+01  2.832001598609E+01  2.764115354889E+01  2.691910599803E+01
  2.615322235016E+01  2.534319314106E+01  2.448909691961E+01  2.381989525327E+01
  2.312657024297E+01  2.240966556985E+01  2.166988764449E+01  2.090810992237E+01
  2.012537512153E+01  1.932289511619E+01  1.850204832404E+01  1.766437446035E+01
  1.681156659794E+01  1.594546054590E+01  1.536163429009E+01  1.477338001618E+01
  1.418132911592E+01  1.358613074398E+01  1.298844919387E+01  1.238896114767E+01
  1.178835282568E+01  1.118731706380E+01  1.058655034795E+01  9.986749835515E+00
  9.388610394264E+00  8.792821688963E+00  8.200065345333E+00  7.611012219822E+00
  7.026319802082E+00  6.446629775042E+00  5.872565755037E+00  5.304731231793E+00
  4.743707725017E+00  4.190053171224E+00  3.644300551052E+00  3.106956763942E+00
  2.578501753662E+00  2.059387884751E+00  1.550039566714E+00  1.050853119652E+00
  5.621968720730E-01  8.441147885887E-02 -3.821895551343E-01 -6.112052192436E-01
 -8.373191626597E-01 -1.060499488024E+00 -1.280715831692E+00 -1.497939328330E+00
 -1.712142573705E+00 -1.923299585850E+00 -2.131385764801E+00 -2.336377851088E+00
 -2.538253883198E+00 -2.736993154186E+00 -2.932576167662E+00 -3.124984593339E+00
 -3.314201222362E+00 -3.500209922619E+00 -3.682995594247E+00 -3.862544125543E+00
 -4.038842349477E+00 -4.211878001035E+00 -4.381639675568E+00 -4.548116788381E+00
 -4.711299535732E+00 -4.871178857452E+00 -5.027746401361E+00 -5.180994489671E+00
 -5.330916087531E+00 -5.477504773884E+00 -5.620754714777E+00 -5.760660639262E+00
 -5.897217817984E+00 -6.030422044579E+00 -6.160269619928E+00 -6.286757339332E+00
 -6.409882482627E+00 -6.529642807222E+00 -6.646036544030E+00 -6.759062396222E+00
 -6.868719540663E+00 -6.975007631907E+00 -7.077926808539E+00 -7.177477701629E+00
 -7.273661445008E+00 -7.366479687040E+00 -7.455934603499E+00 -7.542028911132E+00
 -7.624765881429E+00 -7.704149354074E+00 -7.780183749505E+00 -7.852874079986E+00
 -7.922225958510E+00 -7.988245604874E+00 -8.050939848174E+00 -8.110316124988E+00
 -8.166382472463E+00 -8.219147515535E+00 -8.268620447475E+00 -8.314811003013E+00
 -8.357729423271E+00 -8.397386411827E+00 -8.433793081254E+00 -8.466960889640E+00
 -8.496901566660E+00 -8.523627029006E+00 -8.547149285154E+00 -8.567480329736E+00
 -8.584632028108E+00 -8.598615992102E+00 -8.609443448358E+00 -8.617125101209E+00
 -8.621670992619E+00 -8.623090362351E+00 -8.621391512236E+00 -8.616581679152E+00
 -8.608666922153E+00 -8.597652029954E+00 -8.583540455859E+00 -8.566334287985E+00
 -8.546034263470E+00 -8.522639836020E+00 -8.496149306859E+00 -8.466560029614E+00
 -8.433868700122E+00 -8.398071742343E+00 -8.359165801635E+00 -8.317148356492E+00
 -8.272018459455E+00 -8.223777617319E+00 -8.172430819849E+00 -8.117987725129E+00